<?xml version="1.0" encoding="utf-8"?>
<fcd-export xmlns:xsi="http://www.w3.org/2001/XMLSchema-instance"
            xsi:noNamespaceSchemaLocation="http://sumo.dlr.de/xsd/fcd_file.xsd">
   <timestep time="0.00">
      <vehicle angle="90.00" id="veh1" lane="E0_1" pos="0.00" slope="0.00" speed="14.53"
               type="DEFAULT_VEHTYPE"
               x="0.00"
               y="7.40"/>
      <vehicle angle="90.00" id="veh2" lane="E0_0" pos="50.39" slope="0.00" speed="15.55"
               type="DEFAULT_VEHTYPE"
               x="50.39"
               y="3.70"/>
      <vehicle angle="90.00" id="veh3" lane="E0_2" pos="94.98" slope="0.00" speed="23.73"
               type="DEFAULT_VEHTYPE"
               x="94.98"
               y="11.10"/>
      <vehicle angle="90.00" id="veh4" lane="E0_2" pos="142.63" slope="0.00" speed="22.91"
               type="DEFAULT_VEHTYPE"
               x="142.63"
               y="11.10"/>
      <vehicle angle="90.00" id="veh5" lane="E0_2" pos="190.07" slope="0.00" speed="16.70"
               type="DEFAULT_VEHTYPE"
               x="190.07"
               y="11.10"/>
      <vehicle angle="90.00" id="veh6" lane="E0_2" pos="242.48" slope="0.00" speed="17.59"
               type="DEFAULT_VEHTYPE"
               x="242.48"
               y="11.10"/>
      <vehicle angle="90.00" id="veh7" lane="E0_1" pos="34.72" slope="0.00" speed="21.82"
               type="DEFAULT_VEHTYPE"
               x="34.72"
               y="7.40"/>
      <vehicle angle="90.00" id="veh8" lane="E0_0" pos="72.37" slope="0.00" speed="31.27"
               type="DEFAULT_VEHTYPE"
               x="72.37"
               y="3.70"/>
      <vehicle angle="90.00" id="veh9" lane="E0_0" pos="112.79" slope="0.00" speed="26.29"
               type="DEFAULT_VEHTYPE"
               x="112.79"
               y="3.70"/>
      <vehicle angle="90.00" id="veh10" lane="E0_0" pos="162.65" slope="0.00" speed="18.92"
               type="DEFAULT_VEHTYPE"
               x="162.65"
               y="3.70"/>
      <vehicle angle="90.00" id="veh11" lane="E0_1" pos="199.22" slope="0.00" speed="22.72"
               type="DEFAULT_VEHTYPE"
               x="199.22"
               y="7.40"/>
      <vehicle angle="90.00" id="veh12" lane="E0_2" pos="240.98" slope="0.00" speed="33.12"
               type="DEFAULT_VEHTYPE"
               x="240.98"
               y="11.10"/>
      <vehicle angle="90.00" id="veh13" lane="E0_1" pos="36.34" slope="0.00" speed="22.44"
               type="DEFAULT_VEHTYPE"
               x="36.34"
               y="7.40"/>
      <vehicle angle="90.00" id="veh14" lane="E0_2" pos="79.70" slope="0.00" speed="23.53"
               type="DEFAULT_VEHTYPE"
               x="79.70"
               y="11.10"/>
      <vehicle angle="90.00" id="veh15" lane="E0_2" pos="123.82" slope="0.00" speed="21.13"
               type="DEFAULT_VEHTYPE"
               x="123.82"
               y="11.10"/>
      <vehicle angle="90.00" id="veh16" lane="E0_0" pos="175.54" slope="0.00" speed="13.91"
               type="DEFAULT_VEHTYPE"
               x="175.54"
               y="3.70"/>
      <vehicle angle="90.00" id="veh17" lane="E0_1" pos="216.84" slope="0.00" speed="13.98"
               type="DEFAULT_VEHTYPE"
               x="216.84"
               y="7.40"/>
      <vehicle angle="90.00" id="veh18" lane="E0_2" pos="16.72" slope="0.00" speed="24.42"
               type="DEFAULT_VEHTYPE"
               x="16.72"
               y="11.10"/>
      <vehicle angle="90.00" id="veh19" lane="E0_0" pos="55.07" slope="0.00" speed="31.16"
               type="DEFAULT_VEHTYPE"
               x="55.07"
               y="3.70"/>
      <vehicle angle="90.00" id="veh20" lane="E0_1" pos="99.00" slope="0.00" speed="16.55"
               type="DEFAULT_VEHTYPE"
               x="99.00"
               y="7.40"/>
      <vehicle angle="90.00" id="veh21" lane="E0_0" pos="142.16" slope="0.00" speed="27.03"
               type="DEFAULT_VEHTYPE"
               x="142.16"
               y="3.70"/>
      <vehicle angle="90.00" id="veh22" lane="E0_0" pos="182.06" slope="0.00" speed="28.76"
               type="DEFAULT_VEHTYPE"
               x="182.06"
               y="3.70"/>
      <vehicle angle="270.00" id="veh23" lane="E0_1" pos="27.24" slope="0.00" speed="24.96"
               type="DEFAULT_VEHTYPE"
               x="27.24"
               y="18.50"/>
      <vehicle angle="270.00" id="veh24" lane="E0_0" pos="240.38" slope="0.00" speed="11.28"
               type="DEFAULT_VEHTYPE"
               x="240.38"
               y="14.80"/>
      <vehicle angle="270.00" id="veh25" lane="E0_1" pos="200.10" slope="0.00" speed="24.92"
               type="DEFAULT_VEHTYPE"
               x="200.10"
               y="18.50"/>
      <vehicle angle="270.00" id="veh26" lane="E0_1" pos="149.73" slope="0.00" speed="21.61"
               type="DEFAULT_VEHTYPE"
               x="149.73"
               y="18.50"/>
      <vehicle angle="270.00" id="veh27" lane="E0_0" pos="103.46" slope="0.00" speed="18.34"
               type="DEFAULT_VEHTYPE"
               x="103.46"
               y="14.80"/>
      <vehicle angle="270.00" id="veh28" lane="E0_2" pos="58.97" slope="0.00" speed="16.89"
               type="DEFAULT_VEHTYPE"
               x="58.97"
               y="22.20"/>
      <vehicle angle="270.00" id="veh29" lane="E0_0" pos="8.68" slope="0.00" speed="32.60"
               type="DEFAULT_VEHTYPE"
               x="8.68"
               y="14.80"/>
      <vehicle angle="270.00" id="veh30" lane="E0_2" pos="212.84" slope="0.00" speed="29.81"
               type="DEFAULT_VEHTYPE"
               x="212.84"
               y="22.20"/>
      <vehicle angle="270.00" id="veh31" lane="E0_2" pos="163.78" slope="0.00" speed="26.07"
               type="DEFAULT_VEHTYPE"
               x="163.78"
               y="22.20"/>
      <vehicle angle="270.00" id="veh32" lane="E0_0" pos="122.29" slope="0.00" speed="21.20"
               type="DEFAULT_VEHTYPE"
               x="122.29"
               y="14.80"/>
      <vehicle angle="270.00" id="veh33" lane="E0_0" pos="79.23" slope="0.00" speed="31.87"
               type="DEFAULT_VEHTYPE"
               x="79.23"
               y="14.80"/>
      <vehicle angle="270.00" id="veh34" lane="E0_0" pos="41.78" slope="0.00" speed="24.86"
               type="DEFAULT_VEHTYPE"
               x="41.78"
               y="14.80"/>
      <vehicle angle="270.00" id="veh35" lane="E0_2" pos="246.65" slope="0.00" speed="14.81"
               type="DEFAULT_VEHTYPE"
               x="246.65"
               y="22.20"/>
      <vehicle angle="270.00" id="veh36" lane="E0_0" pos="195.25" slope="0.00" speed="21.76"
               type="DEFAULT_VEHTYPE"
               x="195.25"
               y="14.80"/>
      <vehicle angle="270.00" id="veh37" lane="E0_2" pos="151.03" slope="0.00" speed="20.21"
               type="DEFAULT_VEHTYPE"
               x="151.03"
               y="22.20"/>
      <vehicle angle="270.00" id="veh38" lane="E0_0" pos="105.89" slope="0.00" speed="13.13"
               type="DEFAULT_VEHTYPE"
               x="105.89"
               y="14.80"/>
      <vehicle angle="270.00" id="veh39" lane="E0_2" pos="66.46" slope="0.00" speed="17.95"
               type="DEFAULT_VEHTYPE"
               x="66.46"
               y="22.20"/>
      <vehicle angle="270.00" id="veh40" lane="E0_2" pos="27.35" slope="0.00" speed="30.61"
               type="DEFAULT_VEHTYPE"
               x="27.35"
               y="22.20"/>
      <vehicle angle="270.00" id="veh41" lane="E0_2" pos="232.27" slope="0.00" speed="16.35"
               type="DEFAULT_VEHTYPE"
               x="232.27"
               y="22.20"/>
      <vehicle angle="270.00" id="veh42" lane="E0_0" pos="194.14" slope="0.00" speed="31.08"
               type="DEFAULT_VEHTYPE"
               x="194.14"
               y="14.80"/>
      <vehicle angle="270.00" id="veh43" lane="E0_1" pos="155.60" slope="0.00" speed="29.26"
               type="DEFAULT_VEHTYPE"
               x="155.60"
               y="18.50"/>
      <vehicle angle="270.00" id="veh44" lane="E0_1" pos="114.66" slope="0.00" speed="20.01"
               type="DEFAULT_VEHTYPE"
               x="114.66"
               y="18.50"/>
   </timestep>
   <timestep time="1.00">
      <vehicle angle="90.00" id="veh1" lane="E0_1" pos="14.53" slope="0.00" speed="14.53"
               type="DEFAULT_VEHTYPE"
               x="14.53"
               y="7.40"/>
      <vehicle angle="90.00" id="veh2" lane="E0_0" pos="65.95" slope="0.00" speed="15.55"
               type="DEFAULT_VEHTYPE"
               x="65.95"
               y="3.70"/>
      <vehicle angle="90.00" id="veh3" lane="E0_2" pos="118.70" slope="0.00" speed="23.73"
               type="DEFAULT_VEHTYPE"
               x="118.70"
               y="11.10"/>
      <vehicle angle="90.00" id="veh4" lane="E0_2" pos="165.54" slope="0.00" speed="22.91"
               type="DEFAULT_VEHTYPE"
               x="165.54"
               y="11.10"/>
      <vehicle angle="90.00" id="veh5" lane="E0_2" pos="206.77" slope="0.00" speed="16.70"
               type="DEFAULT_VEHTYPE"
               x="206.77"
               y="11.10"/>
      <vehicle angle="90.00" id="veh6" lane="E0_2" pos="10.07" slope="0.00" speed="17.59"
               type="DEFAULT_VEHTYPE"
               x="10.07"
               y="11.10"/>
      <vehicle angle="90.00" id="veh7" lane="E0_1" pos="56.53" slope="0.00" speed="21.82"
               type="DEFAULT_VEHTYPE"
               x="56.53"
               y="7.40"/>
      <vehicle angle="90.00" id="veh8" lane="E0_0" pos="103.64" slope="0.00" speed="31.27"
               type="DEFAULT_VEHTYPE"
               x="103.64"
               y="3.70"/>
      <vehicle angle="90.00" id="veh9" lane="E0_0" pos="139.08" slope="0.00" speed="26.29"
               type="DEFAULT_VEHTYPE"
               x="139.08"
               y="3.70"/>
      <vehicle angle="90.00" id="veh10" lane="E0_0" pos="181.57" slope="0.00" speed="18.92"
               type="DEFAULT_VEHTYPE"
               x="181.57"
               y="3.70"/>
      <vehicle angle="90.00" id="veh11" lane="E0_1" pos="221.94" slope="0.00" speed="22.72"
               type="DEFAULT_VEHTYPE"
               x="221.94"
               y="7.40"/>
      <vehicle angle="90.00" id="veh12" lane="E0_2" pos="24.10" slope="0.00" speed="33.12"
               type="DEFAULT_VEHTYPE"
               x="24.10"
               y="11.10"/>
      <vehicle angle="90.00" id="veh13" lane="E0_1" pos="58.78" slope="0.00" speed="22.44"
               type="DEFAULT_VEHTYPE"
               x="58.78"
               y="7.40"/>
      <vehicle angle="90.00" id="veh14" lane="E0_2" pos="103.23" slope="0.00" speed="23.53"
               type="DEFAULT_VEHTYPE"
               x="103.23"
               y="11.10"/>
      <vehicle angle="90.00" id="veh15" lane="E0_2" pos="144.95" slope="0.00" speed="21.13"
               type="DEFAULT_VEHTYPE"
               x="144.95"
               y="11.10"/>
      <vehicle angle="90.00" id="veh16" lane="E0_0" pos="189.45" slope="0.00" speed="13.91"
               type="DEFAULT_VEHTYPE"
               x="189.45"
               y="3.70"/>
      <vehicle angle="90.00" id="veh17" lane="E0_1" pos="230.82" slope="0.00" speed="13.98"
               type="DEFAULT_VEHTYPE"
               x="230.82"
               y="7.40"/>
      <vehicle angle="90.00" id="veh18" lane="E0_2" pos="41.14" slope="0.00" speed="24.42"
               type="DEFAULT_VEHTYPE"
               x="41.14"
               y="11.10"/>
      <vehicle angle="90.00" id="veh19" lane="E0_0" pos="86.23" slope="0.00" speed="31.16"
               type="DEFAULT_VEHTYPE"
               x="86.23"
               y="3.70"/>
      <vehicle angle="90.00" id="veh20" lane="E0_1" pos="115.56" slope="0.00" speed="16.55"
               type="DEFAULT_VEHTYPE"
               x="115.56"
               y="7.40"/>
      <vehicle angle="90.00" id="veh21" lane="E0_0" pos="169.20" slope="0.00" speed="27.03"
               type="DEFAULT_VEHTYPE"
               x="169.20"
               y="3.70"/>
      <vehicle angle="90.00" id="veh22" lane="E0_0" pos="210.82" slope="0.00" speed="28.76"
               type="DEFAULT_VEHTYPE"
               x="210.82"
               y="3.70"/>
      <vehicle angle="270.00" id="veh23" lane="E0_1" pos="2.27" slope="0.00" speed="24.96"
               type="DEFAULT_VEHTYPE"
               x="2.27"
               y="18.50"/>
      <vehicle angle="270.00" id="veh24" lane="E0_0" pos="229.10" slope="0.00" speed="11.28"
               type="DEFAULT_VEHTYPE"
               x="229.10"
               y="14.80"/>
      <vehicle angle="270.00" id="veh25" lane="E0_1" pos="175.18" slope="0.00" speed="24.92"
               type="DEFAULT_VEHTYPE"
               x="175.18"
               y="18.50"/>
      <vehicle angle="270.00" id="veh26" lane="E0_1" pos="128.12" slope="0.00" speed="21.61"
               type="DEFAULT_VEHTYPE"
               x="128.12"
               y="18.50"/>
      <vehicle angle="270.00" id="veh27" lane="E0_0" pos="85.12" slope="0.00" speed="18.34"
               type="DEFAULT_VEHTYPE"
               x="85.12"
               y="14.80"/>
      <vehicle angle="270.00" id="veh28" lane="E0_2" pos="42.09" slope="0.00" speed="16.89"
               type="DEFAULT_VEHTYPE"
               x="42.09"
               y="22.20"/>
      <vehicle angle="270.00" id="veh29" lane="E0_0" pos="226.08" slope="0.00" speed="32.60"
               type="DEFAULT_VEHTYPE"
               x="226.08"
               y="14.80"/>
      <vehicle angle="270.00" id="veh30" lane="E0_2" pos="183.02" slope="0.00" speed="29.81"
               type="DEFAULT_VEHTYPE"
               x="183.02"
               y="22.20"/>
      <vehicle angle="270.00" id="veh31" lane="E0_2" pos="137.71" slope="0.00" speed="26.07"
               type="DEFAULT_VEHTYPE"
               x="137.71"
               y="22.20"/>
      <vehicle angle="270.00" id="veh32" lane="E0_0" pos="101.09" slope="0.00" speed="21.20"
               type="DEFAULT_VEHTYPE"
               x="101.09"
               y="14.80"/>
      <vehicle angle="270.00" id="veh33" lane="E0_0" pos="47.37" slope="0.00" speed="31.87"
               type="DEFAULT_VEHTYPE"
               x="47.37"
               y="14.80"/>
      <vehicle angle="270.00" id="veh34" lane="E0_0" pos="16.92" slope="0.00" speed="24.86"
               type="DEFAULT_VEHTYPE"
               x="16.92"
               y="14.80"/>
      <vehicle angle="270.00" id="veh35" lane="E0_2" pos="231.84" slope="0.00" speed="14.81"
               type="DEFAULT_VEHTYPE"
               x="231.84"
               y="22.20"/>
      <vehicle angle="270.00" id="veh36" lane="E0_0" pos="173.48" slope="0.00" speed="21.76"
               type="DEFAULT_VEHTYPE"
               x="173.48"
               y="14.80"/>
      <vehicle angle="270.00" id="veh37" lane="E0_2" pos="130.82" slope="0.00" speed="20.21"
               type="DEFAULT_VEHTYPE"
               x="130.82"
               y="22.20"/>
      <vehicle angle="270.00" id="veh38" lane="E0_0" pos="92.76" slope="0.00" speed="13.13"
               type="DEFAULT_VEHTYPE"
               x="92.76"
               y="14.80"/>
      <vehicle angle="270.00" id="veh39" lane="E0_2" pos="48.51" slope="0.00" speed="17.95"
               type="DEFAULT_VEHTYPE"
               x="48.51"
               y="22.20"/>
      <vehicle angle="270.00" id="veh40" lane="E0_2" pos="246.75" slope="0.00" speed="30.61"
               type="DEFAULT_VEHTYPE"
               x="246.75"
               y="22.20"/>
      <vehicle angle="270.00" id="veh41" lane="E0_2" pos="215.92" slope="0.00" speed="16.35"
               type="DEFAULT_VEHTYPE"
               x="215.92"
               y="22.20"/>
      <vehicle angle="270.00" id="veh42" lane="E0_0" pos="163.05" slope="0.00" speed="31.08"
               type="DEFAULT_VEHTYPE"
               x="163.05"
               y="14.80"/>
      <vehicle angle="270.00" id="veh43" lane="E0_1" pos="126.34" slope="0.00" speed="29.26"
               type="DEFAULT_VEHTYPE"
               x="126.34"
               y="18.50"/>
      <vehicle angle="270.00" id="veh44" lane="E0_1" pos="94.65" slope="0.00" speed="20.01"
               type="DEFAULT_VEHTYPE"
               x="94.65"
               y="18.50"/>
   </timestep>
   <timestep time="2.00">
      <vehicle angle="90.00" id="veh1" lane="E0_1" pos="29.07" slope="0.00" speed="14.53"
               type="DEFAULT_VEHTYPE"
               x="29.07"
               y="7.40"/>
      <vehicle angle="90.00" id="veh2" lane="E0_0" pos="81.50" slope="0.00" speed="15.55"
               type="DEFAULT_VEHTYPE"
               x="81.50"
               y="3.70"/>
      <vehicle angle="90.00" id="veh3" lane="E0_2" pos="142.43" slope="0.00" speed="23.73"
               type="DEFAULT_VEHTYPE"
               x="142.43"
               y="11.10"/>
      <vehicle angle="90.00" id="veh4" lane="E0_2" pos="188.44" slope="0.00" speed="22.91"
               type="DEFAULT_VEHTYPE"
               x="188.44"
               y="11.10"/>
      <vehicle angle="90.00" id="veh5" lane="E0_2" pos="223.46" slope="0.00" speed="16.70"
               type="DEFAULT_VEHTYPE"
               x="223.46"
               y="11.10"/>
      <vehicle angle="90.00" id="veh6" lane="E0_2" pos="27.66" slope="0.00" speed="17.59"
               type="DEFAULT_VEHTYPE"
               x="27.66"
               y="11.10"/>
      <vehicle angle="90.00" id="veh7" lane="E0_1" pos="78.35" slope="0.00" speed="21.82"
               type="DEFAULT_VEHTYPE"
               x="78.35"
               y="7.40"/>
      <vehicle angle="90.00" id="veh8" lane="E0_0" pos="134.92" slope="0.00" speed="31.27"
               type="DEFAULT_VEHTYPE"
               x="134.92"
               y="3.70"/>
      <vehicle angle="90.00" id="veh9" lane="E0_0" pos="165.37" slope="0.00" speed="26.29"
               type="DEFAULT_VEHTYPE"
               x="165.37"
               y="3.70"/>
      <vehicle angle="90.00" id="veh10" lane="E0_0" pos="200.49" slope="0.00" speed="18.92"
               type="DEFAULT_VEHTYPE"
               x="200.49"
               y="3.70"/>
      <vehicle angle="90.00" id="veh11" lane="E0_1" pos="244.66" slope="0.00" speed="22.72"
               type="DEFAULT_VEHTYPE"
               x="244.66"
               y="7.40"/>
      <vehicle angle="90.00" id="veh12" lane="E0_2" pos="57.22" slope="0.00" speed="33.12"
               type="DEFAULT_VEHTYPE"
               x="57.22"
               y="11.10"/>
      <vehicle angle="90.00" id="veh13" lane="E0_1" pos="81.22" slope="0.00" speed="22.44"
               type="DEFAULT_VEHTYPE"
               x="81.22"
               y="7.40"/>
      <vehicle angle="90.00" id="veh14" lane="E0_2" pos="126.75" slope="0.00" speed="23.53"
               type="DEFAULT_VEHTYPE"
               x="126.75"
               y="11.10"/>
      <vehicle angle="90.00" id="veh15" lane="E0_2" pos="166.08" slope="0.00" speed="21.13"
               type="DEFAULT_VEHTYPE"
               x="166.08"
               y="11.10"/>
      <vehicle angle="90.00" id="veh16" lane="E0_0" pos="203.36" slope="0.00" speed="13.91"
               type="DEFAULT_VEHTYPE"
               x="203.36"
               y="3.70"/>
      <vehicle angle="90.00" id="veh17" lane="E0_1" pos="244.80" slope="0.00" speed="13.98"
               type="DEFAULT_VEHTYPE"
               x="244.80"
               y="7.40"/>
      <vehicle angle="90.00" id="veh18" lane="E0_2" pos="65.56" slope="0.00" speed="24.42"
               type="DEFAULT_VEHTYPE"
               x="65.56"
               y="11.10"/>
      <vehicle angle="90.00" id="veh19" lane="E0_0" pos="117.38" slope="0.00" speed="31.16"
               type="DEFAULT_VEHTYPE"
               x="117.38"
               y="3.70"/>
      <vehicle angle="90.00" id="veh20" lane="E0_1" pos="132.11" slope="0.00" speed="16.55"
               type="DEFAULT_VEHTYPE"
               x="132.11"
               y="7.40"/>
      <vehicle angle="90.00" id="veh21" lane="E0_0" pos="196.23" slope="0.00" speed="27.03"
               type="DEFAULT_VEHTYPE"
               x="196.23"
               y="3.70"/>
      <vehicle angle="90.00" id="veh22" lane="E0_0" pos="239.59" slope="0.00" speed="28.76"
               type="DEFAULT_VEHTYPE"
               x="239.59"
               y="3.70"/>
      <vehicle angle="270.00" id="veh23" lane="E0_1" pos="227.31" slope="0.00" speed="24.96"
               type="DEFAULT_VEHTYPE"
               x="227.31"
               y="18.50"/>
      <vehicle angle="270.00" id="veh24" lane="E0_0" pos="217.83" slope="0.00" speed="11.28"
               type="DEFAULT_VEHTYPE"
               x="217.83"
               y="14.80"/>
      <vehicle angle="270.00" id="veh25" lane="E0_1" pos="150.25" slope="0.00" speed="24.92"
               type="DEFAULT_VEHTYPE"
               x="150.25"
               y="18.50"/>
      <vehicle angle="270.00" id="veh26" lane="E0_1" pos="106.51" slope="0.00" speed="21.61"
               type="DEFAULT_VEHTYPE"
               x="106.51"
               y="18.50"/>
      <vehicle angle="270.00" id="veh27" lane="E0_0" pos="66.78" slope="0.00" speed="18.34"
               type="DEFAULT_VEHTYPE"
               x="66.78"
               y="14.80"/>
      <vehicle angle="270.00" id="veh28" lane="E0_2" pos="25.20" slope="0.00" speed="16.89"
               type="DEFAULT_VEHTYPE"
               x="25.20"
               y="22.20"/>
      <vehicle angle="270.00" id="veh29" lane="E0_0" pos="193.48" slope="0.00" speed="32.60"
               type="DEFAULT_VEHTYPE"
               x="193.48"
               y="14.80"/>
      <vehicle angle="270.00" id="veh30" lane="E0_2" pos="153.21" slope="0.00" speed="29.81"
               type="DEFAULT_VEHTYPE"
               x="153.21"
               y="22.20"/>
      <vehicle angle="270.00" id="veh31" lane="E0_2" pos="111.64" slope="0.00" speed="26.07"
               type="DEFAULT_VEHTYPE"
               x="111.64"
               y="22.20"/>
      <vehicle angle="270.00" id="veh32" lane="E0_0" pos="79.89" slope="0.00" speed="21.20"
               type="DEFAULT_VEHTYPE"
               x="79.89"
               y="14.80"/>
      <vehicle angle="270.00" id="veh33" lane="E0_0" pos="15.50" slope="0.00" speed="31.87"
               type="DEFAULT_VEHTYPE"
               x="15.50"
               y="14.80"/>
      <vehicle angle="270.00" id="veh34" lane="E0_0" pos="242.06" slope="0.00" speed="24.86"
               type="DEFAULT_VEHTYPE"
               x="242.06"
               y="14.80"/>
      <vehicle angle="270.00" id="veh35" lane="E0_2" pos="217.03" slope="0.00" speed="14.81"
               type="DEFAULT_VEHTYPE"
               x="217.03"
               y="22.20"/>
      <vehicle angle="270.00" id="veh36" lane="E0_0" pos="151.72" slope="0.00" speed="21.76"
               type="DEFAULT_VEHTYPE"
               x="151.72"
               y="14.80"/>
      <vehicle angle="270.00" id="veh37" lane="E0_2" pos="110.61" slope="0.00" speed="20.21"
               type="DEFAULT_VEHTYPE"
               x="110.61"
               y="22.20"/>
      <vehicle angle="270.00" id="veh38" lane="E0_0" pos="79.63" slope="0.00" speed="13.13"
               type="DEFAULT_VEHTYPE"
               x="79.63"
               y="14.80"/>
      <vehicle angle="270.00" id="veh39" lane="E0_2" pos="30.55" slope="0.00" speed="17.95"
               type="DEFAULT_VEHTYPE"
               x="30.55"
               y="22.20"/>
      <vehicle angle="270.00" id="veh40" lane="E0_2" pos="216.14" slope="0.00" speed="30.61"
               type="DEFAULT_VEHTYPE"
               x="216.14"
               y="22.20"/>
      <vehicle angle="270.00" id="veh41" lane="E0_2" pos="199.58" slope="0.00" speed="16.35"
               type="DEFAULT_VEHTYPE"
               x="199.58"
               y="22.20"/>
      <vehicle angle="270.00" id="veh42" lane="E0_0" pos="131.97" slope="0.00" speed="31.08"
               type="DEFAULT_VEHTYPE"
               x="131.97"
               y="14.80"/>
      <vehicle angle="270.00" id="veh43" lane="E0_1" pos="97.09" slope="0.00" speed="29.26"
               type="DEFAULT_VEHTYPE"
               x="97.09"
               y="18.50"/>
      <vehicle angle="270.00" id="veh44" lane="E0_1" pos="74.64" slope="0.00" speed="20.01"
               type="DEFAULT_VEHTYPE"
               x="74.64"
               y="18.50"/>
   </timestep>
   <timestep time="3.00">
      <vehicle angle="90.00" id="veh1" lane="E0_1" pos="43.60" slope="0.00" speed="14.53"
               type="DEFAULT_VEHTYPE"
               x="43.60"
               y="7.40"/>
      <vehicle angle="90.00" id="veh2" lane="E0_0" pos="97.05" slope="0.00" speed="15.55"
               type="DEFAULT_VEHTYPE"
               x="97.05"
               y="3.70"/>
      <vehicle angle="90.00" id="veh3" lane="E0_2" pos="166.16" slope="0.00" speed="23.73"
               type="DEFAULT_VEHTYPE"
               x="166.16"
               y="11.10"/>
      <vehicle angle="90.00" id="veh4" lane="E0_2" pos="211.35" slope="0.00" speed="22.91"
               type="DEFAULT_VEHTYPE"
               x="211.35"
               y="11.10"/>
      <vehicle angle="90.00" id="veh5" lane="E0_2" pos="240.16" slope="0.00" speed="16.70"
               type="DEFAULT_VEHTYPE"
               x="240.16"
               y="11.10"/>
      <vehicle angle="90.00" id="veh6" lane="E0_2" pos="45.25" slope="0.00" speed="17.59"
               type="DEFAULT_VEHTYPE"
               x="45.25"
               y="11.10"/>
      <vehicle angle="90.00" id="veh7" lane="E0_1" pos="100.17" slope="0.00" speed="21.82"
               type="DEFAULT_VEHTYPE"
               x="100.17"
               y="7.40"/>
      <vehicle angle="90.00" id="veh8" lane="E0_0" pos="166.19" slope="0.00" speed="31.27"
               type="DEFAULT_VEHTYPE"
               x="166.19"
               y="3.70"/>
      <vehicle angle="90.00" id="veh9" lane="E0_0" pos="191.66" slope="0.00" speed="26.29"
               type="DEFAULT_VEHTYPE"
               x="191.66"
               y="3.70"/>
      <vehicle angle="90.00" id="veh10" lane="E0_0" pos="219.40" slope="0.00" speed="18.92"
               type="DEFAULT_VEHTYPE"
               x="219.40"
               y="3.70"/>
      <vehicle angle="90.00" id="veh11" lane="E0_1" pos="17.38" slope="0.00" speed="22.72"
               type="DEFAULT_VEHTYPE"
               x="17.38"
               y="7.40"/>
      <vehicle angle="90.00" id="veh12" lane="E0_2" pos="90.34" slope="0.00" speed="33.12"
               type="DEFAULT_VEHTYPE"
               x="90.34"
               y="11.10"/>
      <vehicle angle="90.00" id="veh13" lane="E0_1" pos="103.66" slope="0.00" speed="22.44"
               type="DEFAULT_VEHTYPE"
               x="103.66"
               y="7.40"/>
      <vehicle angle="90.00" id="veh14" lane="E0_2" pos="150.28" slope="0.00" speed="23.53"
               type="DEFAULT_VEHTYPE"
               x="150.28"
               y="11.10"/>
      <vehicle angle="90.00" id="veh15" lane="E0_2" pos="187.21" slope="0.00" speed="21.13"
               type="DEFAULT_VEHTYPE"
               x="187.21"
               y="11.10"/>
      <vehicle angle="90.00" id="veh16" lane="E0_0" pos="217.27" slope="0.00" speed="13.91"
               type="DEFAULT_VEHTYPE"
               x="217.27"
               y="3.70"/>
      <vehicle angle="90.00" id="veh17" lane="E0_1" pos="8.78" slope="0.00" speed="13.98"
               type="DEFAULT_VEHTYPE"
               x="8.78"
               y="7.40"/>
      <vehicle angle="90.00" id="veh18" lane="E0_2" pos="89.98" slope="0.00" speed="24.42"
               type="DEFAULT_VEHTYPE"
               x="89.98"
               y="11.10"/>
      <vehicle angle="90.00" id="veh19" lane="E0_0" pos="148.54" slope="0.00" speed="31.16"
               type="DEFAULT_VEHTYPE"
               x="148.54"
               y="3.70"/>
      <vehicle angle="90.00" id="veh20" lane="E0_1" pos="148.66" slope="0.00" speed="16.55"
               type="DEFAULT_VEHTYPE"
               x="148.66"
               y="7.40"/>
      <vehicle angle="90.00" id="veh21" lane="E0_0" pos="223.26" slope="0.00" speed="27.03"
               type="DEFAULT_VEHTYPE"
               x="223.26"
               y="3.70"/>
      <vehicle angle="90.00" id="veh22" lane="E0_0" pos="18.35" slope="0.00" speed="28.76"
               type="DEFAULT_VEHTYPE"
               x="18.35"
               y="3.70"/>
      <vehicle angle="270.00" id="veh23" lane="E0_1" pos="202.34" slope="0.00" speed="24.96"
               type="DEFAULT_VEHTYPE"
               x="202.34"
               y="18.50"/>
      <vehicle angle="270.00" id="veh24" lane="E0_0" pos="206.55" slope="0.00" speed="11.28"
               type="DEFAULT_VEHTYPE"
               x="206.55"
               y="14.80"/>
      <vehicle angle="270.00" id="veh25" lane="E0_1" pos="125.33" slope="0.00" speed="24.92"
               type="DEFAULT_VEHTYPE"
               x="125.33"
               y="18.50"/>
      <vehicle angle="270.00" id="veh26" lane="E0_1" pos="84.90" slope="0.00" speed="21.61"
               type="DEFAULT_VEHTYPE"
               x="84.90"
               y="18.50"/>
      <vehicle angle="270.00" id="veh27" lane="E0_0" pos="48.44" slope="0.00" speed="18.34"
               type="DEFAULT_VEHTYPE"
               x="48.44"
               y="14.80"/>
      <vehicle angle="270.00" id="veh28" lane="E0_2" pos="8.31" slope="0.00" speed="16.89"
               type="DEFAULT_VEHTYPE"
               x="8.31"
               y="22.20"/>
      <vehicle angle="270.00" id="veh29" lane="E0_0" pos="160.88" slope="0.00" speed="32.60"
               type="DEFAULT_VEHTYPE"
               x="160.88"
               y="14.80"/>
      <vehicle angle="270.00" id="veh30" lane="E0_2" pos="123.39" slope="0.00" speed="29.81"
               type="DEFAULT_VEHTYPE"
               x="123.39"
               y="22.20"/>
      <vehicle angle="270.00" id="veh31" lane="E0_2" pos="85.58" slope="0.00" speed="26.07"
               type="DEFAULT_VEHTYPE"
               x="85.58"